New lammps configuration
 4896 atoms
 0 bonds
 0 angles
 0 dihedrals
 0 impropers
 10 atom types
 0 bond types
 0 angle types
 0 dihedral types
 0 improper types
 0.0 27.0 xlo xhi
 0.0 27.0 ylo yhi
 0.0 85.0 zlo zhi

 Masses

 1 30.974
 2 18.998
 3 16.0
 4 16.0
 5 12.0
 6 12.0
 7 7.0
 8 7.0
 9 7.0
 10 1.0

 Atoms # Full

1 1 1 0.0000   13.380000    9.070000   39.140000  
2 1 1 0.0000   17.780000   14.020000   31.930000  
3 1 1 0.0000   16.990000   12.360000   35.850000  
4 1 1 0.0000   18.550000   19.780000   38.180000  
5 1 1 0.0000    5.870000    9.850000   35.600000  
6 1 1 0.0000   19.010000   24.660000   26.410000  
7 1 1 0.0000    9.120000    9.370000   19.660000  
8 1 1 0.0000   24.530000    3.290000   43.800000  
9 1 1 0.0000   20.570000   24.110000   32.350000  
10 1 1 0.0000   21.290000    5.850000   40.280000  
11 1 1 0.0000    9.890000    5.020000   18.550000  
12 1 1 0.0000   22.550000   19.480000   24.430000  
13 1 1 0.0000   15.820000   22.290000   32.750000  
14 1 1 0.0000   18.940000   19.540000   30.010000  
15 1 1 0.0000   22.360000   11.520000   21.920000  
16 1 1 0.0000   20.070000   17.320000   44.710000  
17 1 1 0.0000   22.170000   15.900000   35.170000  
18 1 1 0.0000   13.550000    7.170000   20.450000  
19 1 1 0.0000   23.690000    5.720000   28.940000  
20 1 1 0.0000    4.640000   17.510000   32.950000  
21 1 1 0.0000    8.940000   17.130000   31.090000  
22 1 1 0.0000   14.090000   11.420000   26.450000  
23 1 1 0.0000    9.040000   13.810000   42.330000  
24 1 1 0.0000   21.570000   21.750000   42.020000  
25 1 1 0.0000   10.430000    6.620000   43.510000  
26 1 1 0.0000   16.580000    7.520000   42.440000  
27 1 2 0.0000   13.430000    7.770000   40.160000  
28 1 2 0.0000   13.370000   10.410000   38.350000  
29 1 2 0.0000   14.850000    9.550000   39.790000  
30 1 2 0.0000   11.840000    8.630000   38.830000  
31 1 2 0.0000   12.710000    9.840000   40.570000  
32 1 2 0.0000   14.090000    8.350000   37.880000  
33 1 2 0.0000   18.500000   12.760000   31.140000  
34 1 2 0.0000   17.070000   15.070000   32.840000  
35 1 2 0.0000   18.720000   13.630000   33.260000  
36 1 2 0.0000   16.750000   14.100000   30.670000  
37 1 2 0.0000   16.740000   12.730000   32.500000  
38 1 2 0.0000   18.820000   15.170000   31.450000  
39 1 2 0.0000   18.270000   13.030000   36.640000  
40 1 2 0.0000   15.700000   11.690000   35.290000  
41 1 2 0.0000   15.990000   13.350000   36.760000  
42 1 2 0.0000   18.060000   11.270000   35.260000  
43 1 2 0.0000   16.970000   11.340000   37.280000  
44 1 2 0.0000   16.980000   13.380000   34.590000  
45 1 2 0.0000   17.410000   18.850000   37.420000  
46 1 2 0.0000   19.500000   20.650000   39.060000  
47 1 2 0.0000   18.510000   18.680000   39.450000  
48 1 2 0.0000   18.280000   20.890000   37.010000  
49 1 2 0.0000   17.120000   20.450000   38.950000  
50 1 2 0.0000   19.850000   19.070000   37.520000  
51 1 2 0.0000    6.570000    8.390000   35.230000  
52 1 2 0.0000    5.320000   11.200000   36.140000  
53 1 2 0.0000    7.400000   10.400000   36.010000  
54 1 2 0.0000    4.440000    9.080000   35.440000  
55 1 2 0.0000    5.890000    9.150000   37.210000  
56 1 2 0.0000    5.950000   10.490000   34.110000  
57 1 2 0.0000   20.310000   24.000000   25.620000  
58 1 2 0.0000   17.740000   25.070000   27.210000  
59 1 2 0.0000   19.500000   23.830000   27.780000  
60 1 2 0.0000   18.510000   25.160000   24.940000  
61 1 2 0.0000   18.300000   23.120000   25.960000  
62 1 2 0.0000   19.740000   26.020000   26.880000  
63 1 2 0.0000    8.930000    9.020000   21.260000  
64 1 2 0.0000    9.380000    9.900000   18.220000  
65 1 2 0.0000   10.680000    9.870000   20.030000  
66 1 2 0.0000    7.520000    9.130000   19.520000  
67 1 2 0.0000    8.680000   10.970000   20.230000  
68 1 2 0.0000    9.620000    7.900000   19.190000  
69 1 2 0.0000   23.230000    2.300000   43.570000  
70 1 2 0.0000   25.780000    4.220000   43.810000  
71 1 2 0.0000   23.830000    4.370000   42.730000  
72 1 2 0.0000   25.210000    2.030000   44.580000  
73 1 2 0.0000   25.080000    2.480000   42.340000  
74 1 2 0.0000   23.950000    4.070000   45.100000  
75 1 2 0.0000   20.110000   22.840000   31.390000  
76 1 2 0.0000   20.850000   25.430000   33.130000  
77 1 2 0.0000   18.930000   24.410000   32.610000  
78 1 2 0.0000   22.070000   23.880000   31.770000  
79 1 2 0.0000   20.290000   24.990000   30.850000  
80 1 2 0.0000   20.710000   23.280000   33.720000  
81 1 2 0.0000   20.930000    6.450000   38.780000  
82 1 2 0.0000   21.610000    5.500000   41.760000  
83 1 2 0.0000   19.970000    6.720000   40.850000  
84 1 2 0.0000   22.680000    5.310000   39.620000  
85 1 2 0.0000   22.120000    7.390000   40.400000  
86 1 2 0.0000   20.430000    4.490000   40.150000  
87 1 2 0.0000    8.400000    4.380000   18.880000  
88 1 2 0.0000   11.220000    5.630000   18.040000  
89 1 2 0.0000    9.100000    6.280000   17.770000  
90 1 2 0.0000   10.490000    3.610000   19.090000  
91 1 2 0.0000    9.630000    4.170000   17.040000  
92 1 2 0.0000   10.040000    5.870000   19.920000  
93 1 2 0.0000   21.000000   19.790000   24.890000  
94 1 2 0.0000   23.930000   19.180000   23.790000  
95 1 2 0.0000   22.390000   20.720000   23.300000  
96 1 2 0.0000   22.450000   18.140000   25.360000  
97 1 2 0.0000   21.720000   18.520000   23.220000  
98 1 2 0.0000   23.270000   20.450000   25.500000  
99 1 2 0.0000   14.620000   21.400000   33.460000  
100 1 2 0.0000   16.870000   23.050000   31.900000  
101 1 2 0.0000   14.650000   22.930000   31.730000  
102 1 2 0.0000   16.860000   21.380000   33.620000  
103 1 2 0.0000   15.800000   20.940000   31.630000  
104 1 2 0.0000   15.740000   23.560000   33.750000  
105 1 2 0.0000   18.080000   20.160000   28.740000  
106 1 2 0.0000   19.570000   18.850000   31.260000  
107 1 2 0.0000   18.400000   18.020000   29.540000  
108 1 2 0.0000   19.140000   21.090000   30.500000  
109 1 2 0.0000   17.370000   19.660000   30.790000  
110 1 2 0.0000   20.350000   19.370000   29.230000  
111 1 2 0.0000   22.530000   13.160000   22.030000  
112 1 2 0.0000   22.370000    9.980000   21.670000  
113 1 2 0.0000   24.010000   11.400000   22.240000  
114 1 2 0.0000   20.860000   11.810000   21.350000  
115 1 2 0.0000   22.890000   11.840000   20.280000  
116 1 2 0.0000   21.970000   11.250000   23.470000  
117 1 2 0.0000   19.030000   17.470000   45.980000  
118 1 2 0.0000   20.910000   17.300000   43.400000  
119 1 2 0.0000   19.910000   18.980000   44.480000  
120 1 2 0.0000   19.900000   15.710000   44.880000  
121 1 2 0.0000   18.560000   17.240000   43.820000  
122 1 2 0.0000   21.440000   17.510000   45.560000  
123 1 2 0.0000   21.970000   17.430000   35.740000  
124 1 2 0.0000   22.200000   14.500000   34.480000  
125 1 2 0.0000   22.320000   16.570000   33.630000  
126 1 2 0.0000   21.730000   15.390000   36.650000  
127 1 2 0.0000   20.450000   16.070000   34.880000  
128 1 2 0.0000   23.780000   15.820000   35.360000  
129 1 2 0.0000   14.600000    8.370000   20.880000  
130 1 2 0.0000   12.720000    5.970000   19.920000  
131 1 2 0.0000   14.800000    6.080000   20.720000  
132 1 2 0.0000   12.550000    8.360000   19.980000  
133 1 2 0.0000   14.330000    7.400000   18.900000  
134 1 2 0.0000   12.930000    6.920000   21.930000  
135 1 2 0.0000   23.540000    5.900000   30.580000  
136 1 2 0.0000   23.690000    5.710000   27.390000  
137 1 2 0.0000   23.890000    7.390000   28.850000  
138 1 2 0.0000   23.210000    4.180000   29.170000  
139 1 2 0.0000   21.980000    6.110000   29.000000  
140 1 2 0.0000   25.290000    5.460000   28.920000  
141 1 2 0.0000    3.080000   17.410000   33.490000  
142 1 2 0.0000    6.140000   17.430000   32.540000  
143 1 2 0.0000    4.480000   15.940000   32.390000  
144 1 2 0.0000    4.720000   18.910000   33.780000  
145 1 2 0.0000    4.950000   16.740000   34.490000  
146 1 2 0.0000    4.300000   18.140000   31.490000  
147 1 2 0.0000    8.400000   17.460000   32.620000  
148 1 2 0.0000    9.380000   16.610000   29.690000  
149 1 2 0.0000    7.470000   16.350000   30.820000  
150 1 2 0.0000   10.390000   17.650000   31.600000  
151 1 2 0.0000    9.380000   15.610000   31.860000  
152 1 2 0.0000    8.420000   18.500000   30.400000  
153 1 2 0.0000   13.090000   10.390000   27.270000  
154 1 2 0.0000   14.890000   12.370000   25.520000  
155 1 2 0.0000   12.730000   12.320000   26.050000  
156 1 2 0.0000   15.260000   10.310000   26.680000  
157 1 2 0.0000   13.600000   10.420000   25.100000  
158 1 2 0.0000   14.440000   12.390000   27.710000  
159 1 2 0.0000    7.510000   14.400000   42.170000  
160 1 2 0.0000   10.520000   13.320000   42.280000  
161 1 2 0.0000    9.610000   15.320000   41.870000  
162 1 2 0.0000    8.350000   12.340000   42.470000  
163 1 2 0.0000    8.850000   13.560000   40.600000  
164 1 2 0.0000    9.220000   14.140000   43.900000  
165 1 2 0.0000   22.650000   20.540000   41.710000  
166 1 2 0.0000   20.460000   22.840000   42.120000  
167 1 2 0.0000   20.340000   20.650000   41.660000  
168 1 2 0.0000   22.850000   22.750000   42.050000  
169 1 2 0.0000   21.660000   21.920000   40.280000  
170 1 2 0.0000   21.430000   21.490000   43.610000  
171 1 2 0.0000    8.990000    7.430000   43.450000  
172 1 2 0.0000   11.810000    5.940000   43.760000  
173 1 2 0.0000    9.940000    5.980000   44.980000  
174 1 2 0.0000   10.880000    7.540000   42.240000  
175 1 2 0.0000   10.880000    8.010000   44.480000  
176 1 2 0.0000    9.950000    5.310000   42.690000  
177 1 2 0.0000   15.970000    7.240000   40.930000  
178 1 2 0.0000   17.030000    7.600000   43.930000  
179 1 2 0.0000   16.980000    5.890000   42.500000  
180 1 2 0.0000   15.880000    8.990000   42.350000  
181 1 2 0.0000   14.980000    6.950000   42.900000  
182 1 2 0.0000   18.070000    7.940000   41.980000  
183 1 3 0.0000    1.670000    4.030000   13.120000  
184 1 3 0.0000    1.670000    8.300000   13.120000  
185 1 3 0.0000    1.670000   12.570000   13.120000  
186 1 3 0.0000    1.670000   16.840000   13.120000  
187 1 3 0.0000    1.670000   21.110000   13.120000  
188 1 3 0.0000    1.670000   25.380000   13.120000  
189 1 3 0.0000    5.000000    1.580000   13.000000  
190 1 3 0.0000    5.000000    5.850000   13.000000  
191 1 3 0.0000    5.000000   10.120000   13.000000  
192 1 3 0.0000    5.000000   14.390000   13.000000  
193 1 3 0.0000    5.000000   18.660000   13.000000  
194 1 3 0.0000    5.000000   22.930000   13.000000  
195 1 3 0.0000    8.340000    4.030000   13.120000  
196 1 3 0.0000    8.340000    8.300000   13.120000  
197 1 3 0.0000    8.340000   12.570000   13.120000  
198 1 3 0.0000    8.340000   16.840000   13.120000  
199 1 3 0.0000    8.340000   21.110000   13.120000  
200 1 3 0.0000    8.340000   25.380000   13.120000  
201 1 3 0.0000   11.670000    1.580000   13.000000  
202 1 3 0.0000   11.670000    5.850000   13.000000  
203 1 3 0.0000   11.670000   10.120000   13.000000  
204 1 3 0.0000   11.670000   14.390000   13.000000  
205 1 3 0.0000   11.670000   18.660000   13.000000  
206 1 3 0.0000   11.670000   22.930000   13.000000  
207 1 3 0.0000   15.010000    4.030000   13.120000  
208 1 3 0.0000   15.010000    8.300000   13.120000  
209 1 3 0.0000   15.010000   12.570000   13.120000  
210 1 3 0.0000   15.010000   16.840000   13.120000  
211 1 3 0.0000   15.010000   21.110000   13.120000  
212 1 3 0.0000   15.010000   25.380000   13.120000  
213 1 3 0.0000   18.340000    1.580000   13.000000  
214 1 3 0.0000   18.340000    5.850000   13.000000  
215 1 3 0.0000   18.340000   10.120000   13.000000  
216 1 3 0.0000   18.340000   14.390000   13.000000  
217 1 3 0.0000   18.340000   18.660000   13.000000  
218 1 3 0.0000   18.340000   22.930000   13.000000  
219 1 3 0.0000   21.680000    4.030000   13.120000  
220 1 3 0.0000   21.680000    8.300000   13.120000  
221 1 3 0.0000   21.680000   12.570000   13.120000  
222 1 3 0.0000   21.680000   16.840000   13.120000  
223 1 3 0.0000   21.680000   21.110000   13.120000  
224 1 3 0.0000   21.680000   25.380000   13.120000  
225 1 3 0.0000   25.010000    1.580000   13.000000  
226 1 3 0.0000   25.010000    5.850000   13.000000  
227 1 3 0.0000   25.010000   10.120000   13.000000  
228 1 3 0.0000   25.010000   14.390000   13.000000  
229 1 3 0.0000   25.010000   18.660000   13.000000  
230 1 3 0.0000   25.010000   22.930000   13.000000  
231 1 3 0.0000   11.450000   14.780000   23.970000  
232 1 3 0.0000   13.320000   16.100000   24.000000  
233 1 3 0.0000    4.510000    6.260000   65.880000  
234 1 3 0.0000    4.970000    5.960000   63.650000  
235 1 3 0.0000   20.370000   16.720000   27.130000  
236 1 3 0.0000   19.520000   17.830000   25.320000  
237 1 3 0.0000   22.870000   16.590000   57.000000  
238 1 3 0.0000   22.040000   18.710000   56.740000  
239 1 3 0.0000    9.650000   18.190000   40.310000  
240 1 3 0.0000    8.070000   16.610000   40.790000  
241 1 3 0.0000   12.240000   26.980000   54.280000  
242 1 3 0.0000   10.600000   25.490000   54.850000  
243 1 3 0.0000   24.640000    7.720000   36.210000  
244 1 3 0.0000   25.010000    6.270000   37.940000  
245 1 3 0.0000    9.800000   23.120000   60.870000  
246 1 3 0.0000    8.310000   21.490000   61.460000  
247 1 3 0.0000   14.960000   12.420000   72.750000  
248 1 3 0.0000   12.870000   11.860000   72.010000  
249 1 3 0.0000   15.510000   14.520000   46.120000  
250 1 3 0.0000   15.210000   13.510000   48.160000  
251 1 3 0.0000   13.620000   15.800000   66.530000  
252 1 3 0.0000   12.790000   17.070000   68.240000  
253 1 3 0.0000   16.010000   10.580000   59.510000  
254 1 3 0.0000   15.820000    8.320000   59.800000  
255 1 3 0.0000   12.040000   19.490000   65.190000  
256 1 3 0.0000   11.820000   21.740000   64.880000  
257 1 3 0.0000   26.540000    9.840000   62.790000  
258 1 3 0.0000   26.810000   11.460000   61.200000  
259 1 3 0.0000   13.800000   22.520000   43.840000  
260 1 3 0.0000   12.240000   20.890000   43.480000  
261 1 3 0.0000   14.970000   11.290000   17.980000  
262 1 3 0.0000   12.810000   11.480000   17.230000  
263 1 3 0.0000   12.140000    7.150000   32.440000  
264 1 3 0.0000   12.290000    4.880000   32.700000  
265 1 3 0.0000    7.980000   12.310000   64.280000  
266 1 3 0.0000    5.710000   12.120000   64.380000  
267 1 3 0.0000    2.920000    2.660000   70.020000  
268 1 3 0.0000    2.970000    1.120000   71.700000  
269 1 3 0.0000   18.060000    1.030000   35.900000  
270 1 3 0.0000   19.990000   -0.080000   35.360000  
271 1 3 0.0000   16.100000    1.320000   22.980000  
272 1 3 0.0000   17.750000    0.000000   23.860000  
273 1 3 0.0000   20.240000   12.400000   61.010000  
274 1 3 0.0000   20.230000   14.420000   62.090000  
275 1 3 0.0000   12.980000   18.750000   20.160000  
276 1 3 0.0000   12.340000   19.220000   18.010000  
277 1 3 0.0000   16.910000   18.000000   46.190000  
278 1 3 0.0000   16.950000   19.370000   44.350000  
279 1 3 0.0000   11.030000   13.960000   58.900000  
280 1 3 0.0000   12.700000   12.450000   59.280000  
281 1 3 0.0000   19.410000   18.920000   19.860000  
282 1 3 0.0000   20.040000   21.060000   20.380000  
283 1 3 0.0000   10.390000    0.670000   30.700000  
284 1 3 0.0000   10.400000    0.190000   28.460000  
285 1 3 0.0000   11.040000   23.430000   30.510000  
286 1 3 0.0000    8.880000   23.060000   31.180000  
287 1 3 0.0000   16.270000    6.130000   33.910000  
288 1 3 0.0000   15.000000    4.370000   34.640000  
289 1 3 0.0000   14.520000    7.870000   27.580000  
290 1 3 0.0000   13.150000    7.230000   29.300000  
291 1 3 0.0000   27.100000   11.410000   30.710000  
292 1 3 0.0000   25.360000   12.420000   31.810000  
293 1 3 0.0000   15.350000    3.180000   59.770000  
294 1 3 0.0000   17.130000    1.970000   60.560000  
295 1 3 0.0000   24.780000    0.000000   47.860000  
296 1 3 0.0000   23.070000    1.500000   48.060000  
297 1 3 0.0000    2.370000   19.020000   56.360000  
298 1 3 0.0000    0.480000   17.880000   55.760000  
299 1 3 0.0000   15.150000   11.560000   22.640000  
300 1 3 0.0000   13.360000   12.500000   21.570000  
301 1 3 0.0000   25.030000   18.560000   37.950000  
302 1 3 0.0000   24.440000   19.270000   40.040000  
303 1 3 0.0000    8.920000   19.470000   60.820000  
304 1 3 0.0000   10.410000   18.100000   61.900000  
305 1 3 0.0000    2.230000    8.000000   32.310000  
306 1 3 0.0000    1.960000   10.270000   32.490000  
307 1 3 0.0000    8.860000    2.180000   63.090000  
308 1 3 0.0000    7.950000    4.280000   63.080000  
309 1 3 0.0000    7.460000    9.850000   31.740000  
310 1 3 0.0000    8.390000   11.440000   33.100000  
311 1 3 0.0000   26.430000   10.890000   44.390000  
312 1 3 0.0000   26.920000   11.560000   46.520000  
313 1 3 0.0000   10.860000    8.710000   69.170000  
314 1 3 0.0000   10.040000    6.620000   69.620000  
315 1 3 0.0000   20.250000    8.410000   26.710000  
316 1 3 0.0000   20.010000    6.300000   25.850000  
317 1 3 0.0000    3.590000    2.110000   66.130000  
318 1 3 0.0000    5.750000    2.840000   65.900000  
319 1 3 0.0000   18.370000    5.110000   32.010000  
320 1 3 0.0000   16.790000    6.600000   31.290000  
321 1 3 0.0000   24.520000   13.620000   22.850000  
322 1 3 0.0000   24.980000   13.110000   25.030000  
323 1 3 0.0000   17.890000   22.880000   51.620000  
324 1 3 0.0000   19.320000   23.890000   53.100000  
325 1 3 0.0000   19.150000   11.020000   69.110000  
326 1 3 0.0000   19.030000   13.200000   69.820000  
327 1 3 0.0000   13.970000   14.580000   63.760000  
328 1 3 0.0000   14.530000   16.350000   62.430000  
329 1 3 0.0000   23.240000    3.920000   34.580000  
330 1 3 0.0000   25.500000    3.950000   34.980000  
331 1 3 0.0000    9.690000   26.300000   46.030000  
332 1 3 0.0000   10.570000   25.960000   43.940000  
333 1 3 0.0000   13.750000    2.460000   44.210000  
334 1 3 0.0000   13.090000    0.280000   43.980000  
335 1 3 0.0000   17.650000   17.440000   35.740000  
336 1 3 0.0000   19.840000   18.070000   35.560000  
337 1 3 0.0000    7.430000   19.010000   65.640000  
338 1 3 0.0000    7.030000   18.410000   67.810000  
339 1 3 0.0000   19.580000   16.740000   41.660000  
340 1 3 0.0000   21.010000   14.950000   41.490000  
341 1 3 0.0000    4.090000    8.760000   46.080000  
342 1 3 0.0000    4.200000   11.030000   46.380000  
343 1 3 0.0000   18.310000   22.990000   37.820000  
344 1 3 0.0000   19.660000   22.760000   39.650000  
345 1 3 0.0000   10.340000   22.740000   48.650000  
346 1 3 0.0000    8.470000   22.460000   49.940000  
347 1 3 0.0000   12.950000   18.030000   32.560000  
348 1 3 0.0000   13.990000   16.380000   31.370000  
349 1 3 0.0000    6.150000   20.530000   33.270000  
350 1 3 0.0000    8.220000   20.270000   34.200000  
351 1 3 0.0000   14.800000   24.310000   53.980000  
352 1 3 0.0000   15.810000   26.360000   54.080000  
353 1 3 0.0000   21.320000    7.740000   58.440000  
354 1 3 0.0000   19.140000    7.250000   57.960000  
355 1 3 0.0000    8.170000    4.000000   25.620000  
356 1 3 0.0000    7.960000    6.270000   25.810000  
357 1 3 0.0000    1.120000   23.010000   24.080000  
358 1 3 0.0000    0.900000   25.270000   24.340000  
359 1 3 0.0000    2.370000   13.430000   44.480000  
360 1 3 0.0000    4.630000   13.150000   44.230000  
361 1 3 0.0000   10.570000   11.510000   63.330000  
362 1 3 0.0000    9.940000    9.770000   64.670000  
363 1 3 0.0000   21.350000   15.930000   31.150000  
364 1 3 0.0000   23.210000   15.730000   29.830000  
365 1 3 0.0000   15.410000    6.500000   50.620000  
366 1 3 0.0000   17.250000    7.850000   50.400000  
367 1 3 0.0000   24.140000    5.150000   58.400000  
368 1 3 0.0000   22.040000    5.730000   57.690000  
369 1 3 0.0000   13.850000    5.480000   17.950000  
370 1 3 0.0000   14.380000    4.210000   16.120000  
371 1 3 0.0000    7.600000   20.490000   52.490000  
372 1 3 0.0000    5.680000   20.720000   51.250000  
373 1 3 0.0000   20.340000    2.570000   55.520000  
374 1 3 0.0000   19.870000    3.410000   53.440000  
375 1 3 0.0000    0.370000   14.770000   64.720000  
376 1 3 0.0000    2.030000   13.210000   64.900000  
377 1 3 0.0000   25.830000   14.540000   39.100000  
378 1 3 0.0000   25.000000   16.670000   39.270000  
379 1 3 0.0000    8.400000   16.700000   67.550000  
380 1 3 0.0000    7.040000   14.930000   68.070000  
381 1 3 0.0000   15.250000   25.580000   32.560000  
382 1 3 0.0000   13.050000   25.070000   32.140000  
383 1 3 0.0000   22.820000   16.680000   20.690000  
384 1 3 0.0000   24.860000   15.680000   20.380000  
385 1 3 0.0000   15.180000    8.190000   22.990000  
386 1 3 0.0000   16.290000    6.260000   23.540000  
387 1 3 0.0000   22.250000   23.190000   62.710000  
388 1 3 0.0000   24.380000   22.420000   63.010000  
389 1 3 0.0000    4.020000   23.280000   54.150000  
390 1 3 0.0000    5.510000   22.300000   55.580000  
391 1 3 0.0000    1.830000    5.490000   47.480000  
392 1 3 0.0000    3.490000    6.370000   48.790000  
393 1 3 0.0000   23.470000   12.690000   49.300000  
394 1 3 0.0000   21.660000   14.040000   49.700000  
395 1 3 0.0000   15.850000    8.820000   53.500000  
396 1 3 0.0000   17.770000    9.840000   52.770000  
397 1 3 0.0000    7.960000    5.040000   21.590000  
398 1 3 0.0000   10.200000    5.280000   22.040000  
399 1 3 0.0000    1.190000    5.170000   23.750000  
400 1 3 0.0000    0.810000    3.150000   24.760000  
401 1 3 0.0000   14.260000   22.930000   60.220000  
402 1 3 0.0000   13.510000   25.050000   60.670000  
403 1 3 0.0000   21.910000   15.360000   45.710000  
404 1 3 0.0000   23.870000   14.200000   45.470000  
405 1 3 0.0000    9.940000    5.990000   47.180000  
406 1 3 0.0000    8.250000    7.140000   48.210000  
407 1 3 0.0000    2.560000   24.560000   42.750000  
408 1 3 0.0000    1.010000   22.890000   42.550000  
409 1 3 0.0000   12.670000   20.690000   25.800000  
410 1 3 0.0000   14.320000   22.120000   25.110000  
411 1 3 0.0000   17.500000   16.170000   54.800000  
412 1 3 0.0000   16.100000   16.080000   52.990000  
413 1 3 0.0000    7.420000    3.640000   36.640000  
414 1 3 0.0000    9.610000    2.980000   36.770000  
415 1 3 0.0000    9.970000   19.730000   22.610000  
416 1 3 0.0000   10.290000   21.290000   20.960000  
417 1 3 0.0000   13.380000    7.440000   52.490000  
418 1 3 0.0000   11.850000    7.730000   54.170000  
419 1 3 0.0000    8.290000    4.910000   58.110000  
420 1 3 0.0000    6.730000    6.160000   57.000000  
421 1 3 0.0000   23.480000   21.070000   38.260000  
422 1 3 0.0000   23.780000   23.330000   38.120000  
423 1 3 0.0000   21.030000   25.630000   37.590000  
424 1 3 0.0000   23.160000   25.320000   36.800000  
425 1 3 0.0000   23.040000    6.990000   25.600000  
426 1 3 0.0000   23.840000    8.940000   24.720000  
427 1 3 0.0000   10.520000   13.010000   26.410000  
428 1 3 0.0000   11.080000   12.350000   28.530000  
429 1 3 0.0000   24.020000    1.400000   68.780000  
430 1 3 0.0000   24.870000    3.100000   70.050000  
431 1 3 0.0000    1.460000    7.120000   42.260000  
432 1 3 0.0000    1.750000    4.850000   42.110000  
433 1 3 0.0000    2.280000   12.710000   30.970000  
434 1 3 0.0000    0.090000   12.840000   30.300000  
435 1 3 0.0000    9.330000   11.810000   36.980000  
436 1 3 0.0000    9.360000   11.490000   39.250000  
437 1 3 0.0000   11.260000    8.240000   46.750000  
438 1 3 0.0000   13.150000    9.380000   46.140000  
439 1 3 0.0000   20.540000    6.600000   51.350000  
440 1 3 0.0000   22.520000    7.510000   52.040000  
441 1 3 0.0000    2.170000   25.220000   56.690000  
442 1 3 0.0000    0.470000   23.740000   56.330000  
443 1 3 0.0000    2.730000    5.190000   57.950000  
444 1 3 0.0000    3.250000    4.010000   56.070000  
445 1 3 0.0000   18.810000   10.190000   31.860000  
446 1 3 0.0000   16.800000   11.010000   31.130000  
447 1 3 0.0000    1.990000    2.660000   45.300000  
448 1 3 0.0000    2.830000    0.530000   45.410000  
449 1 3 0.0000   17.800000   15.810000   67.440000  
450 1 3 0.0000   16.250000   16.660000   68.900000  
451 1 3 0.0000   19.120000    4.130000   65.760000  
452 1 3 0.0000   20.470000    4.910000   67.440000  
453 1 3 0.0000    8.910000   23.070000   38.990000  
454 1 3 0.0000    8.850000   21.170000   37.720000  
455 1 3 0.0000   24.820000   20.200000   43.030000  
456 1 3 0.0000   27.000000   20.850000   43.270000  
457 1 3 0.0000    2.060000   13.010000   53.090000  
458 1 3 0.0000    0.870000   14.850000   53.780000  
459 1 3 0.0000   25.240000   17.810000   45.730000  
460 1 3 0.0000   23.280000   18.270000   44.630000  
461 1 3 0.0000   22.980000    5.170000   19.960000  
462 1 3 0.0000   20.970000    6.230000   20.240000  
463 1 3 0.0000    1.560000    9.460000   20.620000  
464 1 3 0.0000    0.170000    8.100000   21.840000  
465 1 3 0.0000    4.720000   15.010000   30.410000  
466 1 3 0.0000    6.180000   14.710000   28.670000  
467 1 3 0.0000    8.800000   17.190000   50.120000  
468 1 3 0.0000    9.440000   19.390000   50.140000  
469 1 3 0.0000    5.480000    5.860000   52.560000  
470 1 3 0.0000    4.490000    7.700000   51.640000  
471 1 3 0.0000   21.620000   10.410000   37.150000  
472 1 3 0.0000   22.500000   12.380000   36.400000  
473 1 3 0.0000    7.300000    8.800000   43.800000  
474 1 3 0.0000    6.530000   10.230000   45.410000  
475 1 3 0.0000   26.330000   10.200000   40.230000  
476 1 3 0.0000   24.260000   10.320000   41.190000  
477 1 3 0.0000    9.500000    9.440000   47.330000  
478 1 3 0.0000    9.160000   11.580000   46.580000  
479 1 3 0.0000    4.440000   16.230000   59.940000  
480 1 3 0.0000    5.620000   14.530000   60.940000  
481 1 3 0.0000    7.570000   20.930000   44.340000  
482 1 3 0.0000    9.700000   20.560000   43.580000  
483 1 3 0.0000   19.050000   23.690000   45.890000  
484 1 3 0.0000   16.950000   23.860000   45.010000  
485 1 3 0.0000   17.460000   15.410000   37.580000  
486 1 3 0.0000   19.550000   14.940000   36.770000  
487 1 3 0.0000   12.540000    1.960000   53.480000  
488 1 3 0.0000   11.900000    0.590000   55.200000  
489 1 3 0.0000    5.460000   12.790000   37.640000  
490 1 3 0.0000    4.760000   12.410000   39.790000  
491 1 3 0.0000    6.900000   24.620000   20.730000  
492 1 3 0.0000    7.910000   25.790000   22.420000  
493 1 3 0.0000   26.390000    3.520000   20.030000  
494 1 3 0.0000   26.290000    1.250000   20.280000  
495 1 3 0.0000   10.360000   17.970000   25.670000  
496 1 3 0.0000    8.970000   19.790000   25.660000  
497 1 3 0.0000   18.010000    2.070000   32.160000  
498 1 3 0.0000   15.810000    1.990000   31.520000  
499 1 3 0.0000    2.730000   15.720000   25.180000  
500 1 3 0.0000    2.700000   13.590000   24.340000  
501 1 3 0.0000    3.020000    9.400000   51.610000  
502 1 3 0.0000    0.850000    8.810000   51.160000  
503 1 3 0.0000   14.100000   24.780000   22.230000  
504 1 3 0.0000   13.040000   25.820000   20.480000  
505 1 3 0.0000   13.330000    7.580000   65.480000  
506 1 3 0.0000   14.670000    6.270000   64.150000  
507 1 3 0.0000    5.590000   25.090000   59.200000  
508 1 3 0.0000    3.830000   25.080000   60.670000  
509 1 3 0.0000   17.060000    5.320000   40.370000  
510 1 3 0.0000   15.650000    5.500000   38.570000  
511 1 3 0.0000    6.670000   12.220000   67.740000  
512 1 3 0.0000    5.800000   10.550000   66.430000  
513 1 3 0.0000   15.500000   11.400000   53.640000  
514 1 3 0.0000   17.560000   12.130000   54.330000  
515 1 3 0.0000    7.120000   12.740000   25.110000  
516 1 3 0.0000    7.440000   11.970000   22.980000  
517 1 3 0.0000   13.220000   25.160000   17.630000  
518 1 3 0.0000   14.120000   26.860000   18.870000  
519 1 3 0.0000   10.150000   25.060000   27.450000  
520 1 3 0.0000    8.420000   25.100000   25.960000  
521 1 3 0.0000    7.870000    4.030000   40.920000  
522 1 3 0.0000    6.900000    2.210000   41.920000  
523 1 3 0.0000   25.100000    6.300000   43.500000  
524 1 3 0.0000   24.570000    8.440000   42.850000  
525 1 3 0.0000    3.660000   25.030000   67.730000  
526 1 3 0.0000    5.930000   24.730000   67.640000  
527 1 3 0.0000    7.750000    2.310000   45.470000  
528 1 3 0.0000    8.720000    2.340000   47.540000  
529 1 3 0.0000   17.580000    2.620000   25.700000  
530 1 3 0.0000   16.370000    1.080000   26.880000  
531 1 3 0.0000   24.420000   17.790000   63.720000  
532 1 3 0.0000   25.450000   15.810000   64.220000  
533 1 3 0.0000    5.830000   11.510000   49.900000  
534 1 3 0.0000    5.860000   13.760000   50.310000  
535 1 3 0.0000   13.010000   11.510000   43.230000  
536 1 3 0.0000   11.730000    9.610000   43.230000  
537 1 3 0.0000   14.390000   12.500000   38.400000  
538 1 3 0.0000   13.720000   14.640000   38.860000  
539 1 3 0.0000   17.490000    3.550000   50.820000  
540 1 3 0.0000   18.490000    5.600000   50.660000  
541 1 3 0.0000    8.560000   25.700000   50.880000  
542 1 3 0.0000    6.370000   25.360000   50.300000  
543 1 3 0.0000    3.690000   18.770000   45.180000  
544 1 3 0.0000    1.620000   19.450000   45.870000  
545 1 3 0.0000   10.590000   15.170000   45.800000  
546 1 3 0.0000   12.630000   16.170000   46.070000  
547 1 3 0.0000   16.660000    1.240000   64.650000  
548 1 3 0.0000   15.240000    1.470000   62.860000  
549 1 3 0.0000   18.840000    5.650000   45.540000  
550 1 3 0.0000   17.960000    3.630000   44.940000  
551 1 3 0.0000    6.450000    2.810000   23.310000  
552 1 3 0.0000    5.460000    4.260000   21.830000  
553 1 3 0.0000   16.010000   25.540000   49.220000  
554 1 3 0.0000   14.110000   26.760000   48.820000  
555 1 3 0.0000    5.970000    8.450000   71.490000  
556 1 3 0.0000    4.510000    6.700000   71.320000  
557 1 3 0.0000   24.690000   24.760000   34.370000  
558 1 3 0.0000   26.970000   24.740000   34.160000  
559 1 3 0.0000   19.140000   -0.010000   46.820000  
560 1 3 0.0000   19.210000    1.990000   45.710000  
561 1 3 0.0000   19.900000   20.270000   49.640000  