LAMMPS data file. CGCMM style. atom_style full generated by VMD/TopoTools v1.2 on Wed Jun 04 12:14:29 EDT 2014
 5948 atoms
 0 bonds
 0 angles
 0 dihedrals
 0 impropers
 4 atom types
 0 bond types
 0 angle types
 0 dihedral types
 0 improper types
 -20.702549 20.180149  xlo xhi
 -20.690501 20.158200  ylo yhi
 -15.046600 41.240399  zlo zhi

# Pair Coeffs
#
# 1  1
# 2  2
# 3  3
# 4  4

 Masses

 1 63.546001 # 1
 2 63.546001 # 2
 3 15.999400 # 3
 4 28.085501 # 4

 Atoms

1 1 1 0.147709 -20.468800 -20.661900 23.381399 # 1 UNK
2 1 1 0.095259 -18.619101 -18.803301 23.381300 # 1 UNK
3 1 1 -0.018074 -18.603201 -20.667700 25.175800 # 1 UNK
4 1 1 -0.019134 -20.462799 -18.819000 25.196800 # 1 UNK
5 1 1 0.115078 -16.759501 -20.652100 23.360300 # 1 UNK
6 1 1 0.147097 -14.909800 -18.793501 23.360001 # 1 UNK
7 1 1 -0.015159 -14.894100 -20.657801 25.154600 # 1 UNK
8 1 1 -0.018138 -16.753500 -18.809099 25.175600 # 1 UNK
9 1 1 0.067866 -13.050400 -20.642300 23.339001 # 1 UNK
10 1 1 0.132335 -11.200600 -18.783701 23.338900 # 1 UNK
11 1 1 -0.015005 -11.184800 -20.648001 25.133400 # 1 UNK
12 1 1 -0.017901 -13.044300 -18.799299 25.154400 # 1 UNK
13 1 1 0.035139 -9.341100 -20.632401 23.317900 # 1 UNK
14 1 1 0.086807 -7.491350 -18.773899 23.317699 # 1 UNK
15 1 1 -0.012243 -7.475580 -20.638201 25.112200 # 1 UNK
16 1 1 -0.015017 -9.335060 -18.789499 25.133200 # 1 UNK
17 1 1 0.101478 -5.631930 -20.622601 23.296600 # 1 UNK
18 1 1 0.158475 -3.782130 -18.763901 23.296499 # 1 UNK
19 1 1 -0.023656 -3.766350 -20.628300 25.091000 # 1 UNK
20 1 1 -0.018068 -5.625840 -18.779600 25.112000 # 1 UNK
21 1 1 0.157283 -1.922630 -20.612801 23.275499 # 1 UNK
22 1 1 0.102696 -0.072901 -18.754101 23.275299 # 1 UNK
23 1 1 -0.019062 -0.057133 -20.618500 25.069901 # 1 UNK
24 1 1 -0.020824 -1.916600 -18.769699 25.090900 # 1 UNK
25 1 1 0.147863 1.786560 -20.602900 23.254299 # 1 UNK
26 1 1 0.098990 3.636320 -18.744301 23.254101 # 1 UNK
27 1 1 -0.018450 3.652090 -20.608700 25.048700 # 1 UNK
28 1 1 -0.019737 1.792620 -18.759899 25.069700 # 1 UNK
29 1 1 0.138640 5.495800 -20.593000 23.233101 # 1 UNK
30 1 1 0.123001 7.345540 -18.734501 23.232901 # 1 UNK
31 1 1 -0.014569 7.361320 -20.598700 25.027500 # 1 UNK
32 1 1 -0.009816 5.501840 -18.750000 25.048500 # 1 UNK
33 1 1 0.040213 9.205010 -20.583200 23.211901 # 1 UNK
34 1 1 0.115550 11.054700 -18.724701 23.211800 # 1 UNK
35 1 1 -0.014914 11.070600 -20.588900 25.006300 # 1 UNK
36 1 1 -0.020954 9.211070 -18.740200 25.027300 # 1 UNK
37 1 1 0.152614 12.914300 -20.573299 23.190800 # 1 UNK
38 1 1 0.054270 14.764100 -18.714800 23.190500 # 1 UNK
39 1 1 -0.022587 14.779800 -20.579100 24.985100 # 1 UNK
40 1 1 -0.015516 12.920300 -18.730400 25.006100 # 1 UNK
41 1 1 0.151838 16.623501 -20.563499 23.169600 # 1 UNK
42 1 1 0.150148 18.473200 -18.705000 23.169399 # 1 UNK
43 1 1 -0.019998 18.489000 -20.569300 24.964001 # 1 UNK
44 1 1 -0.019101 16.629499 -18.720501 24.985001 # 1 UNK
45 1 1 0.170636 -20.478500 -16.954700 23.402201 # 1 UNK
46 1 1 0.055092 -18.628799 -15.096000 23.402100 # 1 UNK
47 1 1 -0.013216 -18.613001 -16.960400 25.196600 # 1 UNK
48 1 1 -0.019196 -20.472500 -15.111700 25.217600 # 1 UNK
49 1 1 0.060279 -16.769300 -16.944901 23.381001 # 1 UNK
50 1 1 0.109783 -14.919500 -15.086200 23.380899 # 1 UNK
51 1 1 -0.018375 -14.903800 -16.950600 25.175400 # 1 UNK
52 1 1 -0.011485 -16.763201 -15.101800 25.196400 # 1 UNK
53 1 1 0.063304 -13.060100 -16.934900 23.359900 # 1 UNK
54 1 1 0.089741 -11.210300 -15.076400 23.359699 # 1 UNK
55 1 1 -0.011964 -11.194500 -16.940800 25.154200 # 1 UNK
56 1 1 -0.016150 -13.054000 -15.092000 25.175301 # 1 UNK
57 1 1 0.152419 -9.350840 -16.925100 23.338699 # 1 UNK
58 1 1 0.147701 -7.501070 -15.066600 23.338499 # 1 UNK
59 1 1 -0.021473 -7.485310 -16.930799 25.133101 # 1 UNK
60 1 1 -0.023759 -9.344790 -15.082100 25.154100 # 1 UNK
61 1 1 0.068640 -5.641610 -16.915199 23.317499 # 1 UNK
62 1 1 0.052340 -3.791850 -15.056700 23.317400 # 1 UNK
63 1 1 -0.012618 -3.776080 -16.921000 25.111900 # 1 UNK
64 1 1 -0.014128 -5.635560 -15.072300 25.132900 # 1 UNK
65 1 1 0.068861 -1.932340 -16.905399 23.296301 # 1 UNK
66 1 1 0.063991 -0.082631 -15.046900 23.296101 # 1 UNK
67 1 1 -0.015194 -0.066857 -16.911200 25.090700 # 1 UNK
68 1 1 -0.012743 -1.926330 -15.062500 25.111700 # 1 UNK
69 1 1 0.164823 1.776850 -16.895599 23.275101 # 1 UNK
70 1 1 0.100097 3.626590 -15.037000 23.275000 # 1 UNK
71 1 1 -0.021029 3.642380 -16.901300 25.069500 # 1 UNK
72 1 1 -0.016478 1.782890 -15.052600 25.090500 # 1 UNK
73 1 1 0.079062 5.486080 -16.885799 23.254000 # 1 UNK
74 1 1 0.046300 7.335820 -15.027100 23.253799 # 1 UNK
75 1 1 -0.019214 7.351600 -16.891500 25.048300 # 1 UNK
76 1 1 -0.017512 5.492120 -15.042800 25.069300 # 1 UNK
77 1 1 0.171115 9.195300 -16.875900 23.232800 # 1 UNK
78 1 1 0.090233 11.045100 -15.017300 23.232599 # 1 UNK
79 1 1 -0.011042 11.060800 -16.881701 25.027201 # 1 UNK
80 1 1 -0.016275 9.201350 -15.032900 25.048201 # 1 UNK
81 1 1 0.129749 12.904500 -16.865999 23.211599 # 1 UNK
82 1 1 0.061828 14.754300 -15.007500 23.211399 # 1 UNK
83 1 1 -0.018156 14.770100 -16.871799 25.006001 # 1 UNK
84 1 1 -0.018157 12.910500 -15.023000 25.027000 # 1 UNK
85 1 1 0.085683 16.613701 -16.856100 23.190399 # 1 UNK
86 1 1 0.137230 18.463499 -14.997600 23.190201 # 1 UNK
87 1 1 -0.024099 18.479200 -16.861900 24.984800 # 1 UNK
88 1 1 -0.014562 16.619801 -15.013200 25.005800 # 1 UNK
89 1 1 0.040192 -20.488199 -13.247400 23.423100 # 1 UNK
90 1 1 0.060116 -18.638500 -11.388800 23.422899 # 1 UNK
91 1 1 -0.014216 -18.622700 -13.253100 25.217501 # 1 UNK
92 1 1 -0.010080 -20.482201 -11.404400 25.238501 # 1 UNK
93 1 1 0.118076 -16.778999 -13.237500 23.401899 # 1 UNK
94 1 1 0.065751 -14.929300 -11.378900 23.401800 # 1 UNK
95 1 1 -0.008596 -14.913500 -13.243300 25.196301 # 1 UNK
96 1 1 -0.017563 -16.773001 -11.394600 25.217300 # 1 UNK
97 1 1 0.070974 -13.069800 -13.227700 23.380699 # 1 UNK
98 1 1 0.083071 -11.220000 -11.369100 23.380600 # 1 UNK
99 1 1 -0.011089 -11.204300 -13.233400 25.175100 # 1 UNK
100 1 1 -0.012597 -13.063700 -11.384700 25.196100 # 1 UNK
101 1 1 0.137499 -9.360560 -13.217900 23.359600 # 1 UNK
102 1 1 0.051779 -7.510810 -11.359200 23.359400 # 1 UNK
103 1 1 -0.018484 -7.495030 -13.223600 25.153900 # 1 UNK
104 1 1 -0.014092 -9.354510 -11.374800 25.174900 # 1 UNK
105 1 1 0.061881 -5.651320 -13.207900 23.338301 # 1 UNK
106 1 1 0.159745 -3.801580 -11.349400 23.338200 # 1 UNK
107 1 1 -0.016397 -3.785800 -13.213800 25.132700 # 1 UNK
108 1 1 -0.015335 -5.645290 -11.365000 25.153700 # 1 UNK
109 1 1 0.064235 -1.942100 -13.198100 23.317200 # 1 UNK
110 1 1 0.140788 -0.092353 -11.339600 23.316999 # 1 UNK
111 1 1 -0.015628 -0.076578 -13.203800 25.111500 # 1 UNK
112 1 1 -0.017185 -1.936050 -11.355100 25.132601 # 1 UNK
113 1 1 0.063419 1.767120 -13.188300 23.296000 # 1 UNK
114 1 1 0.074415 3.616870 -11.329700 23.295799 # 1 UNK
115 1 1 -0.014416 3.632650 -13.194000 25.090401 # 1 UNK
116 1 1 -0.022625 1.773170 -11.345300 25.111401 # 1 UNK
117 1 1 0.111923 5.476340 -13.178400 23.274799 # 1 UNK
118 1 1 0.135612 7.326150 -11.319900 23.274700 # 1 UNK
119 1 1 -0.017967 7.341870 -13.184200 25.069201 # 1 UNK
120 1 1 -0.017001 5.482400 -11.335500 25.090200 # 1 UNK
121 1 1 0.074805 9.185610 -13.168600 23.253599 # 1 UNK
122 1 1 0.163050 11.035400 -11.310100 23.253401 # 1 UNK
123 1 1 -0.018681 11.051100 -13.174300 25.048000 # 1 UNK
124 1 1 -0.015008 9.191630 -11.325700 25.069000 # 1 UNK
125 1 1 0.140541 12.894800 -13.158800 23.232401 # 1 UNK
126 1 1 0.173353 14.744500 -11.300100 23.232300 # 1 UNK
127 1 1 -0.017370 14.760400 -13.164500 25.026800 # 1 UNK
128 1 1 -0.024335 12.900800 -11.315800 25.047800 # 1 UNK
129 1 1 0.033180 16.604099 -13.148900 23.211300 # 1 UNK
130 1 1 0.130948 18.453800 -11.290300 23.211100 # 1 UNK
131 1 1 -0.020794 18.469500 -13.154700 25.005600 # 1 UNK
132 1 1 -0.020720 16.610100 -11.305900 25.026600 # 1 UNK
133 1 1 0.095843 -20.497999 -9.540070 23.443899 # 1 UNK
134 1 1 0.056005 -18.648300 -7.681500 23.443800 # 1 UNK
135 1 1 -0.016452 -18.632401 -9.545820 25.238300 # 1 UNK
136 1 1 -0.015584 -20.492001 -7.697090 25.259300 # 1 UNK
137 1 1 0.084455 -16.788700 -9.530220 23.422701 # 1 UNK
138 1 1 0.161733 -14.939000 -7.671640 23.422600 # 1 UNK
139 1 1 -0.016831 -14.923300 -9.535970 25.217100 # 1 UNK
140 1 1 -0.015895 -16.782700 -7.687250 25.238100 # 1 UNK
141 1 1 0.047401 -13.079500 -9.520370 23.401501 # 1 UNK
142 1 1 0.114857 -11.229700 -7.661810 23.401400 # 1 UNK
143 1 1 -0.015600 -11.214000 -9.526130 25.195900 # 1 UNK
144 1 1 -0.014616 -13.073400 -7.677400 25.216900 # 1 UNK
145 1 1 0.048595 -9.370290 -9.510540 23.380400 # 1 UNK
146 1 1 0.051329 -7.520540 -7.651970 23.380199 # 1 UNK
147 1 1 -0.011768 -7.504760 -9.516280 25.174700 # 1 UNK
148 1 1 -0.012945 -9.364230 -7.667560 25.195801 # 1 UNK
149 1 1 0.076547 -5.661060 -9.500700 23.359200 # 1 UNK
150 1 1 0.099261 -3.811280 -7.642130 23.358999 # 1 UNK
151 1 1 -0.016163 -3.795530 -9.506440 25.153601 # 1 UNK
152 1 1 -0.015270 -5.655000 -7.657710 25.174601 # 1 UNK
153 1 1 0.105049 -1.951830 -9.490840 23.337999 # 1 UNK
154 1 1 0.115489 -0.102082 -7.632280 23.337900 # 1 UNK
155 1 1 -0.022026 -0.086304 -9.496600 25.132401 # 1 UNK
156 1 1 -0.018000 -1.945780 -7.647870 25.153400 # 1 UNK
157 1 1 0.147736 1.757390 -9.480990 23.316799 # 1 UNK
158 1 1 0.119413 3.607150 -7.622400 23.316700 # 1 UNK
159 1 1 -0.016777 3.622920 -9.486750 25.111200 # 1 UNK
160 1 1 -0.015466 1.763440 -7.638030 25.132200 # 1 UNK
161 1 1 0.060911 5.466650 -9.471160 23.295700 # 1 UNK
162 1 1 0.062976 7.316370 -7.612580 23.295500 # 1 UNK
163 1 1 -0.015419 7.332150 -9.476900 25.090000 # 1 UNK
164 1 1 -0.014797 5.472670 -7.628170 25.111000 # 1 UNK
165 1 1 0.067423 9.175850 -9.461310 23.274500 # 1 UNK
166 1 1 0.071071 11.025600 -7.602750 23.274300 # 1 UNK
167 1 1 -0.016362 11.041400 -9.467050 25.068800 # 1 UNK
168 1 1 -0.013641 9.181900 -7.618330 25.089800 # 1 UNK
169 1 1 0.089342 12.885100 -9.451450 23.253300 # 1 UNK
170 1 1 0.156707 14.734800 -7.592890 23.253099 # 1 UNK
171 1 1 -0.015615 14.750600 -9.457210 25.047701 # 1 UNK
172 1 1 -0.018328 12.891100 -7.608480 25.068701 # 1 UNK
173 1 1 0.098235 16.594299 -9.441620 23.232100 # 1 UNK
174 1 1 0.174818 18.444099 -7.583030 23.231899 # 1 UNK
175 1 1 -0.018389 18.459801 -9.447370 25.026501 # 1 UNK
176 1 1 -0.023849 16.600401 -7.598640 25.047501 # 1 UNK
177 1 1 0.101923 -20.507700 -5.832770 23.464701 # 1 UNK
178 1 1 0.054212 -18.658001 -3.974200 23.464600 # 1 UNK
179 1 1 -0.010673 -18.642099 -5.838530 25.259100 # 1 UNK
180 1 1 -0.015305 -20.501699 -3.989790 25.280100 # 1 UNK
181 1 1 0.052888 -16.798401 -5.822920 23.443600 # 1 UNK
182 1 1 0.006764 -14.948700 -3.964360 23.443399 # 1 UNK
183 1 1 -0.012061 -14.933000 -5.828690 25.238001 # 1 UNK
184 1 1 -0.011378 -16.792400 -3.979950 25.259001 # 1 UNK
185 1 1 0.082646 -13.089300 -5.813070 23.422501 # 1 UNK
186 1 1 0.043980 -11.239500 -3.954490 23.422300 # 1 UNK
187 1 1 -0.014093 -11.223700 -5.818830 25.216801 # 1 UNK
188 1 1 -0.010458 -13.083200 -3.970110 25.237801 # 1 UNK
189 1 1 0.073341 -9.380000 -5.803230 23.401199 # 1 UNK
190 1 1 0.071040 -7.530260 -3.944670 23.400999 # 1 UNK
191 1 1 -0.011744 -7.514490 -5.808990 25.195601 # 1 UNK
192 1 1 -0.011226 -9.373960 -3.960260 25.216600 # 1 UNK
193 1 1 0.090981 -5.670780 -5.793400 23.380100 # 1 UNK
194 1 1 0.157438 -3.821010 -3.934840 23.379900 # 1 UNK
195 1 1 -0.019187 -3.805250 -5.799140 25.174400 # 1 UNK
196 1 1 -0.019527 -5.664740 -3.950420 25.195400 # 1 UNK
197 1 1 0.090247 -1.961560 -5.783550 23.358900 # 1 UNK
198 1 1 0.086494 -0.111803 -3.924970 23.358700 # 1 UNK
199 1 1 -0.015021 -0.096029 -5.789300 25.153200 # 1 UNK
200 1 1 -0.008093 -1.955510 -3.940570 25.174200 # 1 UNK
201 1 1 0.082929 1.747650 -5.773730 23.337601 # 1 UNK
202 1 1 0.106508 3.597420 -3.915140 23.337500 # 1 UNK
203 1 1 -0.015722 3.613200 -5.779450 25.132000 # 1 UNK
204 1 1 -0.018334 1.753720 -3.930720 25.153099 # 1 UNK
205 1 1 0.065929 5.456880 -5.763860 23.316401 # 1 UNK
206 1 1 0.107474 7.306660 -3.905270 23.316299 # 1 UNK
207 1 1 -0.016450 7.322430 -5.769610 25.110901 # 1 UNK
208 1 1 -0.015749 5.462940 -3.920880 25.131901 # 1 UNK
209 1 1 0.083483 9.166120 -5.754010 23.295300 # 1 UNK
210 1 1 0.160631 11.015900 -3.895440 23.295099 # 1 UNK
211 1 1 -0.018290 11.031600 -5.759760 25.089701 # 1 UNK
212 1 1 -0.018034 9.172170 -3.911030 25.110701 # 1 UNK
213 1 1 0.122081 12.875300 -5.744170 23.274099 # 1 UNK
214 1 1 0.087110 14.725100 -3.885590 23.273899 # 1 UNK
215 1 1 -0.023370 14.740900 -5.749910 25.068501 # 1 UNK
216 1 1 -0.017681 12.881400 -3.901190 25.089500 # 1 UNK
217 1 1 0.141904 16.584600 -5.734320 23.252899 # 1 UNK
218 1 1 0.095403 18.434299 -3.875750 23.252800 # 1 UNK
219 1 1 -0.019507 18.450100 -5.740070 25.047300 # 1 UNK
220 1 1 -0.016490 16.590599 -3.891340 25.068300 # 1 UNK
221 1 1 0.066388 -20.517401 -2.125480 23.485600 # 1 UNK
222 1 1 0.025511 -18.667700 -0.266911 23.485500 # 1 UNK
223 1 1 -0.009128 -18.651899 -2.131230 25.280001 # 1 UNK
224 1 1 -0.009784 -20.511400 -0.282505 25.301001 # 1 UNK
225 1 1 0.046401 -16.808201 -2.115640 23.464399 # 1 UNK
226 1 1 0.149294 -14.958400 -0.257053 23.464199 # 1 UNK
227 1 1 -0.014502 -14.942700 -2.121390 25.258801 # 1 UNK
228 1 1 -0.012385 -16.802099 -0.272663 25.279800 # 1 UNK
229 1 1 0.040985 -13.099000 -2.105790 23.443199 # 1 UNK
230 1 1 0.058079 -11.249200 -0.247217 23.443100 # 1 UNK
231 1 1 -0.010346 -11.233400 -2.111550 25.237600 # 1 UNK
232 1 1 -0.015457 -13.092900 -0.262814 25.258600 # 1 UNK
233 1 1 0.067633 -9.389720 -2.095940 23.422100 # 1 UNK
234 1 1 0.049687 -7.539980 -0.237376 23.421900 # 1 UNK
235 1 1 -0.015115 -7.524200 -2.101690 25.216400 # 1 UNK
236 1 1 -0.014868 -9.383690 -0.252970 25.237400 # 1 UNK
237 1 1 0.159750 -5.680510 -2.086100 23.400900 # 1 UNK
238 1 1 0.036187 -3.830760 -0.227507 23.400801 # 1 UNK
239 1 1 -0.021213 -3.814980 -2.091850 25.195200 # 1 UNK
240 1 1 -0.010556 -5.674450 -0.243124 25.216299 # 1 UNK
241 1 1 0.120388 -1.971270 -2.076260 23.379700 # 1 UNK
242 1 1 0.120957 -0.121534 -0.217682 23.379499 # 1 UNK
243 1 1 -0.021334 -0.105755 -2.082000 25.174101 # 1 UNK
244 1 1 -0.016107 -1.965230 -0.233276 25.195101 # 1 UNK
245 1 1 0.094148 1.737950 -2.066400 23.358500 # 1 UNK
246 1 1 0.085212 3.587700 -0.207823 23.358400 # 1 UNK
247 1 1 -0.019626 3.603470 -2.072160 25.152901 # 1 UNK
248 1 1 -0.016743 1.744000 -0.223434 25.173901 # 1 UNK
249 1 1 0.162974 5.447180 -2.056560 23.337299 # 1 UNK
250 1 1 0.094727 7.296930 -0.197986 23.337099 # 1 UNK
251 1 1 -0.011391 7.312700 -2.062320 25.131701 # 1 UNK
252 1 1 -0.020253 5.453220 -0.213588 25.152700 # 1 UNK
253 1 1 0.091186 9.156380 -2.046720 23.316099 # 1 UNK
254 1 1 0.153766 11.006200 -0.188134 23.316000 # 1 UNK
255 1 1 -0.022700 11.021900 -2.052470 25.110500 # 1 UNK
256 1 1 -0.015402 9.162450 -0.203739 25.131500 # 1 UNK
257 1 1 0.157185 12.865600 -2.036870 23.295000 # 1 UNK
258 1 1 0.060386 14.715300 -0.178301 23.294701 # 1 UNK
259 1 1 -0.015821 14.731200 -2.042620 25.089300 # 1 UNK
260 1 1 -0.018198 12.871600 -0.193894 25.110399 # 1 UNK
261 1 1 0.071519 16.574800 -2.027040 23.273701 # 1 UNK
262 1 1 0.155547 18.424601 -0.168476 23.273600 # 1 UNK
263 1 1 -0.016444 18.440300 -2.032780 25.068199 # 1 UNK
264 1 1 -0.016307 16.580900 -0.184052 25.089199 # 1 UNK
265 1 1 0.065157 -20.527201 1.581840 23.506399 # 1 UNK
266 1 1 0.054410 -18.677401 3.440380 23.506300 # 1 UNK
267 1 1 -0.011893 -18.661600 1.576060 25.300800 # 1 UNK
268 1 1 -0.013375 -20.521099 3.424790 25.321800 # 1 UNK
269 1 1 0.013781 -16.817900 1.591650 23.485300 # 1 UNK
270 1 1 0.064146 -14.968200 3.450220 23.485100 # 1 UNK
271 1 1 -0.011388 -14.952400 1.585910 25.279600 # 1 UNK
272 1 1 -0.013354 -16.811899 3.434630 25.300699 # 1 UNK
273 1 1 0.081922 -13.108700 1.601500 23.464100 # 1 UNK
274 1 1 0.092215 -11.258900 3.460070 23.463900 # 1 UNK
275 1 1 -0.014137 -11.243200 1.595750 25.258499 # 1 UNK
276 1 1 -0.016558 -13.102600 3.444480 25.279499 # 1 UNK
277 1 1 0.067916 -9.399460 1.611350 23.442900 # 1 UNK
278 1 1 0.136286 -7.549690 3.469900 23.442699 # 1 UNK
279 1 1 -0.009890 -7.533940 1.605600 25.237301 # 1 UNK
280 1 1 -0.014796 -9.393410 3.454320 25.258301 # 1 UNK
281 1 1 0.045147 -5.690250 1.621220 23.421700 # 1 UNK
282 1 1 0.070034 -3.840490 3.479750 23.421499 # 1 UNK
283 1 1 -0.013408 -3.824710 1.615450 25.216101 # 1 UNK
284 1 1 -0.013915 -5.684180 3.464160 25.237101 # 1 UNK
285 1 1 0.054518 -1.981000 1.631030 23.400499 # 1 UNK
286 1 1 0.046492 -0.131262 3.489600 23.400299 # 1 UNK
287 1 1 -0.011451 -0.115481 1.625290 25.194901 # 1 UNK
288 1 1 -0.013683 -1.974960 3.474020 25.215900 # 1 UNK
289 1 1 0.048911 1.728220 1.640880 23.379400 # 1 UNK
290 1 1 0.083488 3.577990 3.499420 23.379200 # 1 UNK
291 1 1 -0.015109 3.593740 1.635140 25.173700 # 1 UNK
292 1 1 -0.013845 1.734270 3.483860 25.194700 # 1 UNK
293 1 1 0.144265 5.437440 1.650740 23.358200 # 1 UNK
294 1 1 0.170629 7.287200 3.509300 23.358000 # 1 UNK
295 1 1 -0.023527 7.302970 1.644980 25.152500 # 1 UNK
296 1 1 -0.024829 5.443490 3.493710 25.173599 # 1 UNK
297 1 1 0.090406 9.146680 1.660550 23.337000 # 1 UNK
298 1 1 0.063464 10.996400 3.519110 23.336800 # 1 UNK
299 1 1 -0.014075 11.012200 1.654820 25.131399 # 1 UNK
300 1 1 -0.014973 9.152720 3.503550 25.152399 # 1 UNK
301 1 1 0.066506 12.855900 1.670430 23.315800 # 1 UNK
302 1 1 0.030964 14.705600 3.528950 23.315701 # 1 UNK
303 1 1 -0.010984 14.721500 1.664680 25.110201 # 1 UNK
304 1 1 -0.008581 12.861900 3.513390 25.131201 # 1 UNK
305 1 1 0.031633 16.565201 1.680270 23.294600 # 1 UNK
306 1 1 0.124426 18.414900 3.538840 23.294500 # 1 UNK
307 1 1 -0.018553 18.430599 1.674510 25.089001 # 1 UNK
308 1 1 -0.018509 16.571199 3.523240 25.110001 # 1 UNK
309 1 1 0.095905 -20.536900 5.289110 23.527300 # 1 UNK
310 1 1 0.087617 -18.687201 7.147670 23.527100 # 1 UNK
311 1 1 -0.017005 -18.671301 5.283360 25.321699 # 1 UNK
312 1 1 -0.017196 -20.530899 7.132080 25.342699 # 1 UNK
313 1 1 0.160604 -16.827600 5.298950 23.506100 # 1 UNK
314 1 1 0.084111 -14.977900 7.157530 23.506001 # 1 UNK
315 1 1 -0.015511 -14.962200 5.293200 25.300501 # 1 UNK
316 1 1 -0.019462 -16.821600 7.141930 25.321501 # 1 UNK
317 1 1 0.088008 -13.118500 5.308810 23.485001 # 1 UNK
318 1 1 0.088069 -11.268600 7.167370 23.484800 # 1 UNK
319 1 1 -0.015599 -11.252900 5.303050 25.279301 # 1 UNK
320 1 1 -0.014861 -13.112300 7.151770 25.300301 # 1 UNK
321 1 1 0.063469 -9.409190 5.318670 23.463699 # 1 UNK
322 1 1 0.073817 -7.559430 7.177210 23.463600 # 1 UNK
323 1 1 -0.016546 -7.543650 5.312900 25.258101 # 1 UNK
324 1 1 -0.015419 -9.403140 7.161620 25.279100 # 1 UNK
325 1 1 0.064851 -5.699950 5.328490 23.442600 # 1 UNK
326 1 1 0.089552 -3.850210 7.187060 23.442400 # 1 UNK
327 1 1 -0.014169 -3.834430 5.322740 25.236900 # 1 UNK
328 1 1 -0.013948 -5.693910 7.171460 25.257999 # 1 UNK
329 1 1 0.140599 -1.990730 5.338340 23.421400 # 1 UNK
330 1 1 0.049629 -0.140977 7.196910 23.421200 # 1 UNK
331 1 1 -0.014400 -0.125206 5.332590 25.215799 # 1 UNK
332 1 1 -0.016500 -1.984690 7.181310 25.236799 # 1 UNK
333 1 1 0.036081 1.718490 5.348190 23.400200 # 1 UNK
334 1 1 0.072489 3.568250 7.206750 23.400000 # 1 UNK
335 1 1 -0.011481 3.584020 5.342430 25.194599 # 1 UNK
336 1 1 -0.009111 1.724540 7.191160 25.215599 # 1 UNK
337 1 1 0.176201 5.427730 5.358020 23.379101 # 1 UNK
338 1 1 0.065523 7.277480 7.216590 23.378901 # 1 UNK
339 1 1 -0.018404 7.293250 5.352280 25.173401 # 1 UNK
340 1 1 -0.015707 5.433770 7.201000 25.194401 # 1 UNK
341 1 1 0.067999 9.136950 5.367880 23.357800 # 1 UNK
342 1 1 0.018731 10.986700 7.226450 23.357700 # 1 UNK
343 1 1 -0.010663 11.002500 5.362120 25.152201 # 1 UNK
344 1 1 -0.010355 9.143000 7.210850 25.173201 # 1 UNK
345 1 1 0.024291 12.846200 5.377720 23.336700 # 1 UNK
346 1 1 0.041830 14.695900 7.236290 23.336500 # 1 UNK
347 1 1 -0.010868 14.711700 5.371960 25.131001 # 1 UNK
348 1 1 -0.017857 12.852200 7.220690 25.152000 # 1 UNK
349 1 1 0.072630 16.555300 5.387550 23.315500 # 1 UNK
350 1 1 0.135135 18.405100 7.246100 23.315399 # 1 UNK
351 1 1 -0.018453 18.420900 5.381810 25.109800 # 1 UNK
352 1 1 -0.017476 16.561399 7.230530 25.130899 # 1 UNK
353 1 1 0.079091 -20.546600 8.996400 23.548100 # 1 UNK
354 1 1 0.093658 -18.696800 10.854900 23.547899 # 1 UNK
355 1 1 -0.017401 -18.681000 8.990650 25.342501 # 1 UNK
356 1 1 -0.014060 -20.540600 10.839400 25.363501 # 1 UNK
357 1 1 0.142941 -16.837299 9.006260 23.527000 # 1 UNK
358 1 1 0.104883 -14.987600 10.864800 23.526699 # 1 UNK
359 1 1 -0.019492 -14.971900 9.000490 25.321301 # 1 UNK
360 1 1 -0.018746 -16.831301 10.849200 25.342300 # 1 UNK
361 1 1 0.070341 -13.128200 9.016090 23.505800 # 1 UNK
362 1 1 0.076316 -11.278400 10.874700 23.505600 # 1 UNK
363 1 1 -0.013570 -11.262600 9.010340 25.300100 # 1 UNK
364 1 1 -0.017699 -13.122100 10.859000 25.321199 # 1 UNK
365 1 1 0.163943 -9.418910 9.025900 23.484501 # 1 UNK
366 1 1 0.054529 -7.569180 10.884500 23.484400 # 1 UNK
367 1 1 -0.016100 -7.553380 9.020190 25.278999 # 1 UNK
368 1 1 -0.012447 -9.412860 10.869000 25.299999 # 1 UNK
369 1 1 0.151047 -5.709690 9.035790 23.463400 # 1 UNK
370 1 1 0.064545 -3.859930 10.894400 23.463200 # 1 UNK
371 1 1 -0.018091 -3.844150 9.030030 25.257799 # 1 UNK
372 1 1 -0.012785 -5.703630 10.878800 25.278799 # 1 UNK
373 1 1 0.080997 -2.000450 9.045630 23.442200 # 1 UNK
374 1 1 0.118938 -0.150703 10.904200 23.442101 # 1 UNK
375 1 1 -0.012094 -0.134934 9.039870 25.236601 # 1 UNK
376 1 1 -0.011384 -1.994400 10.888600 25.257601 # 1 UNK
377 1 1 0.033794 1.708770 9.055480 23.421000 # 1 UNK
378 1 1 0.070970 3.558510 10.914000 23.420900 # 1 UNK
379 1 1 -0.013992 3.574300 9.049730 25.215401 # 1 UNK
380 1 1 -0.018620 1.714820 10.898500 25.236401 # 1 UNK
381 1 1 0.089552 5.418000 9.065330 23.399900 # 1 UNK
382 1 1 0.117049 7.267750 10.923900 23.399700 # 1 UNK
383 1 1 -0.012877 7.283520 9.059570 25.194201 # 1 UNK
384 1 1 -0.015358 5.424050 10.908300 25.215300 # 1 UNK
385 1 1 0.049061 9.127220 9.075170 23.378700 # 1 UNK
386 1 1 0.050814 10.977000 10.933600 23.378599 # 1 UNK
387 1 1 -0.013597 10.992700 9.069420 25.173000 # 1 UNK
388 1 1 -0.014129 9.133270 10.918100 25.194099 # 1 UNK
389 1 1 0.122167 12.836400 9.085010 23.357500 # 1 UNK
390 1 1 0.066561 14.686300 10.943600 23.357300 # 1 UNK
391 1 1 -0.011837 14.702000 9.079260 25.151899 # 1 UNK
392 1 1 -0.013141 12.842500 10.928000 25.172899 # 1 UNK
393 1 1 0.129107 16.545700 9.094870 23.336300 # 1 UNK
394 1 1 0.057956 18.395399 10.953400 23.336201 # 1 UNK
395 1 1 -0.019674 18.411200 9.089100 25.130699 # 1 UNK
396 1 1 -0.016963 16.551701 10.937800 25.151699 # 1 UNK
397 1 1 0.072666 -20.556299 12.703700 23.569000 # 1 UNK
398 1 1 0.056055 -18.706600 14.562300 23.568800 # 1 UNK
399 1 1 -0.013520 -18.690800 12.698000 25.363400 # 1 UNK
400 1 1 -0.015410 -20.550301 14.546700 25.384399 # 1 UNK
401 1 1 0.024459 -16.847099 12.713600 23.547800 # 1 UNK
402 1 1 0.135879 -14.997400 14.572100 23.547600 # 1 UNK
403 1 1 -0.020036 -14.981600 12.707800 25.342199 # 1 UNK
404 1 1 -0.016458 -16.841101 14.556500 25.363199 # 1 UNK
405 1 1 0.160550 -13.137900 12.723400 23.526600 # 1 UNK
406 1 1 0.134688 -11.288100 14.581900 23.526400 # 1 UNK
407 1 1 -0.018214 -11.272300 12.717700 25.320999 # 1 UNK
408 1 1 -0.020318 -13.131800 14.566400 25.341999 # 1 UNK
409 1 1 0.061957 -9.428640 12.733200 23.505400 # 1 UNK
410 1 1 0.088175 -7.578900 14.591700 23.505301 # 1 UNK
411 1 1 -0.009527 -7.563110 12.727500 25.299801 # 1 UNK
412 1 1 -0.009354 -9.422590 14.576200 25.320801 # 1 UNK
413 1 1 0.045199 -5.719410 12.743100 23.484200 # 1 UNK
414 1 1 0.056833 -3.869650 14.601700 23.484100 # 1 UNK
415 1 1 -0.011936 -3.853880 12.737300 25.278601 # 1 UNK
416 1 1 -0.012201 -5.713360 14.586000 25.299601 # 1 UNK
417 1 1 0.066802 -2.010170 12.752900 23.463100 # 1 UNK
418 1 1 0.067337 -0.160433 14.611500 23.462900 # 1 UNK
419 1 1 -0.017781 -0.144658 12.747200 25.257401 # 1 UNK
420 1 1 -0.010979 -2.004130 14.595800 25.278500 # 1 UNK
421 1 1 0.162734 1.699030 12.762700 23.441900 # 1 UNK
422 1 1 0.185964 3.548780 14.621400 23.441700 # 1 UNK
423 1 1 -0.023733 3.564570 12.757000 25.236300 # 1 UNK
424 1 1 -0.019266 1.705090 14.605800 25.257299 # 1 UNK
425 1 1 0.191764 5.408280 12.772700 23.420700 # 1 UNK
426 1 1 0.039023 7.258040 14.631200 23.420500 # 1 UNK
427 1 1 -0.018444 7.273800 12.766800 25.215099 # 1 UNK
428 1 1 -0.021353 5.414320 14.615600 25.236099 # 1 UNK
429 1 1 0.057473 9.117500 12.782500 23.399500 # 1 UNK
430 1 1 0.157359 10.967300 14.641000 23.399300 # 1 UNK
431 1 1 -0.014293 10.983000 12.776700 25.193899 # 1 UNK
432 1 1 -0.014750 9.123540 14.625400 25.214899 # 1 UNK
433 1 1 0.085984 12.826700 12.792300 23.378401 # 1 UNK
434 1 1 0.033921 14.676400 14.650900 23.378201 # 1 UNK
435 1 1 -0.012263 14.692300 12.786600 25.172701 # 1 UNK
436 1 1 -0.009993 12.832700 14.635300 25.193701 # 1 UNK
437 1 1 0.023750 16.535999 12.802200 23.357201 # 1 UNK
438 1 1 0.176515 18.385700 14.660700 23.357000 # 1 UNK
439 1 1 -0.011649 18.401501 12.796400 25.151501 # 1 UNK
440 1 1 -0.013089 16.542000 14.645100 25.172501 # 1 UNK
441 1 1 0.135927 -20.566099 16.410999 23.589800 # 1 UNK
442 1 1 0.055330 -18.716200 18.269600 23.589701 # 1 UNK
443 1 1 -0.015137 -18.700500 16.405199 25.384199 # 1 UNK
444 1 1 -0.014192 -20.559999 18.253901 25.405199 # 1 UNK
445 1 1 0.069435 -16.856800 16.420799 23.568600 # 1 UNK
446 1 1 0.060865 -15.007100 18.279400 23.568501 # 1 UNK
447 1 1 -0.015945 -14.991300 16.415100 25.363001 # 1 UNK
448 1 1 -0.012061 -16.850800 18.263901 25.384001 # 1 UNK
449 1 1 0.050701 -13.147600 16.430700 23.547501 # 1 UNK
450 1 1 0.048959 -11.297800 18.289200 23.547300 # 1 UNK
451 1 1 -0.013187 -11.282100 16.424900 25.341801 # 1 UNK
452 1 1 -0.011461 -13.141500 18.273701 25.362801 # 1 UNK
453 1 1 0.139579 -9.438360 16.440599 23.526300 # 1 UNK
454 1 1 0.040169 -7.588600 18.299101 23.526100 # 1 UNK
455 1 1 -0.014918 -7.572830 16.434799 25.320700 # 1 UNK
456 1 1 -0.014881 -9.432310 18.283501 25.341700 # 1 UNK
457 1 1 0.123700 -5.729110 16.450399 23.505199 # 1 UNK
458 1 1 0.042011 -3.879380 18.308901 23.504900 # 1 UNK
459 1 1 -0.011943 -3.863600 16.444599 25.299500 # 1 UNK
460 1 1 -0.015280 -5.723090 18.293400 25.320499 # 1 UNK
461 1 1 0.027119 -2.019890 16.460199 23.483900 # 1 UNK
462 1 1 0.057285 -0.170147 18.318800 23.483801 # 1 UNK
463 1 1 -0.010873 -0.154381 16.454500 25.278299 # 1 UNK
464 1 1 -0.011249 -2.013860 18.303200 25.299299 # 1 UNK
465 1 1 0.051746 1.689330 16.470100 23.462700 # 1 UNK
466 1 1 0.085041 3.539070 18.328600 23.462500 # 1 UNK
467 1 1 -0.018843 3.554850 16.464300 25.257099 # 1 UNK
468 1 1 -0.014515 1.695370 18.313000 25.278099 # 1 UNK
469 1 1 0.149447 5.398550 16.479900 23.441500 # 1 UNK
470 1 1 0.070026 7.248330 18.338499 23.441401 # 1 UNK
471 1 1 -0.012827 7.264070 16.474100 25.235901 # 1 UNK
472 1 1 -0.009801 5.404600 18.322901 25.256901 # 1 UNK
473 1 1 0.034876 9.107770 16.489700 23.420401 # 1 UNK
474 1 1 0.048494 10.957500 18.348301 23.420200 # 1 UNK
475 1 1 -0.014125 10.973300 16.483999 25.214701 # 1 UNK
476 1 1 -0.009463 9.113820 18.332800 25.235701 # 1 UNK
477 1 1 0.077683 12.817000 16.499599 23.399200 # 1 UNK
478 1 1 0.075635 14.666700 18.358200 23.399000 # 1 UNK
479 1 1 -0.009408 14.682600 16.493799 25.193600 # 1 UNK
480 1 1 -0.011438 12.823100 18.342600 25.214600 # 1 UNK
481 1 1 0.037827 16.526300 16.509501 23.378000 # 1 UNK
482 1 1 0.093800 18.375999 18.368000 23.377800 # 1 UNK
483 1 1 -0.019114 18.391701 16.503700 25.172400 # 1 UNK
484 1 1 -0.013390 16.532301 18.352400 25.193399 # 1 UNK
485 1 1 0.000153 -20.446899 -20.683300 26.991301 # 1 UNK
486 1 1 -0.000166 -18.597200 -18.824699 26.991100 # 1 UNK
487 1 1 0.000617 -18.581499 -20.689100 28.785700 # 1 UNK
488 1 1 0.000567 -20.440901 -18.840300 28.806601 # 1 UNK
489 1 1 -0.000876 -16.737801 -20.673500 26.970100 # 1 UNK
490 1 1 -0.001606 -14.888000 -18.814899 26.969900 # 1 UNK
491 1 1 -0.000692 -14.872200 -20.679300 28.764500 # 1 UNK
492 1 1 -0.000317 -16.731701 -18.830400 28.785500 # 1 UNK
493 1 1 -0.001981 -13.028500 -20.663601 26.948900 # 1 UNK
494 1 1 -0.002063 -11.178800 -18.805000 26.948799 # 1 UNK
495 1 1 -0.000050 -11.163000 -20.669300 28.743299 # 1 UNK
496 1 1 -0.000588 -13.022500 -18.820601 28.764299 # 1 UNK
497 1 1 -0.002322 -9.319290 -20.653700 26.927799 # 1 UNK
498 1 1 -0.001756 -7.469530 -18.795200 26.927601 # 1 UNK
499 1 1 -0.000415 -7.453760 -20.659500 28.722099 # 1 UNK
500 1 1 -0.000221 -9.313230 -18.810801 28.743099 # 1 UNK
501 1 1 -0.002744 -5.610060 -20.643900 26.906601 # 1 UNK
502 1 1 -0.002345 -3.760300 -18.785400 26.906401 # 1 UNK
503 1 1 -0.000889 -3.744540 -20.649700 28.700899 # 1 UNK
504 1 1 -0.000610 -5.604010 -18.800900 28.721901 # 1 UNK
505 1 1 -0.002960 -1.900840 -20.634100 26.885401 # 1 UNK
506 1 1 -0.002835 -0.051081 -18.775499 26.885201 # 1 UNK
507 1 1 -0.000108 -0.035311 -20.639799 28.679701 # 1 UNK
508 1 1 -0.000959 -1.894780 -18.791100 28.700701 # 1 UNK
509 1 1 -0.002397 1.808390 -20.624300 26.864201 # 1 UNK
510 1 1 -0.001368 3.658150 -18.765600 26.864000 # 1 UNK
511 1 1 -0.000689 3.673910 -20.629999 28.658600 # 1 UNK
512 1 1 0.000204 1.814450 -18.781300 28.679600 # 1 UNK
513 1 1 -0.001769 5.517610 -20.614401 26.843000 # 1 UNK
514 1 1 -0.002089 7.367370 -18.755800 26.842800 # 1 UNK
515 1 1 -0.000187 7.383140 -20.620199 28.637400 # 1 UNK
516 1 1 -0.000241 5.523670 -18.771400 28.658400 # 1 UNK
517 1 1 -0.001236 9.226840 -20.604601 26.821800 # 1 UNK
518 1 1 -0.001897 11.076600 -18.745899 26.821699 # 1 UNK
519 1 1 -0.001520 11.092400 -20.610300 28.616199 # 1 UNK
520 1 1 -0.000480 9.232900 -18.761499 28.637199 # 1 UNK
521 1 1 -0.001936 12.936100 -20.594700 26.800699 # 1 UNK
522 1 1 -0.000856 14.785800 -18.736099 26.800501 # 1 UNK
523 1 1 0.000092 14.801600 -20.600401 28.594999 # 1 UNK
524 1 1 -0.001120 12.942100 -18.751699 28.615999 # 1 UNK
525 1 1 -0.001204 16.645300 -20.584801 26.779499 # 1 UNK
526 1 1 -0.001349 18.495100 -18.726299 26.779301 # 1 UNK
527 1 1 0.000746 18.510799 -20.590599 28.573799 # 1 UNK
528 1 1 -0.000050 16.651400 -18.741899 28.594801 # 1 UNK
529 1 1 -0.002577 -20.456699 -16.976000 27.012100 # 1 UNK
530 1 1 -0.001283 -18.606899 -15.117500 27.011999 # 1 UNK
531 1 1 -0.000831 -18.591200 -16.981701 28.806499 # 1 UNK